% Model:              Untitled.mph
% Version:            COMSOL 6.1.0.282
% Date:               Dec 13 2024, 14:09
% Dimension:          3
% Nodes:              3846
% Expressions:        3
% Description:        Magnetic field, x-component, Magnetic field, y-component, Magnetic field, z-component
% Length unit:        nm
% x                       y                        z                        mfnc.Hx (A/m) @ t=1      mfnc.Hy (A/m) @ t=1      mfnc.Hz (A/m) @ t=1
-233.82285804526774       33.82850576006433        -237.96857033979924      55935.1463932265         -7723.2618273329845      -43282.830627441406
-208.21120268174076       0.2687472025293864       -240.33930178908395      45236.851135253906       1248.1066284179688       -56784.797119140625
-222.9100118524581        17.905356755721993       -228.3078721288832       46512.85900878906        -3976.8680419921875      -49125.8388671875
-215.50880117032204       88.99039532799543        -236.29508258259523      50360.113023864295       -20910.05982729396       -44980.107849121094
-198.13541507786445       101.2816886830853        -226.048463401208        36526.987060546875       -23411.928802490234      -50464.474029541016
-204.44025187424742       121.70740052552222       -210.53417061248012      35603.69828796387        -22385.19024658203       -39808.060119628906
-179.15420585952143       107.70592078787118       -239.75338081861273      36367.82537841797        -27105.27215576172       -57190.42462158203
-190.90218096148664       141.95918688233857       -224.2390880298849       38525.83459472656        -27542.991455078125      -42037.656304359436
-180.06863216605376       134.27821785273264       -239.75338081861273      39850.8249206543         -28915.511642456055      -49194.82249760628
-221.33146178806132       48.06816466219467        -224.81688034309695      43645.57157733023        -9265.376749722886       -48050.660095214844
-211.3908840682898        71.98009492064428        -223.14339258589294      40311.94300409008        -13546.448875107373      -49743.92269897461
-229.57892000351214       65.67022936155465        -211.11196292569224      41362.333699864175       -11891.740436694434      -40691.240478515625
-203.14342585283896       54.37803022128431        -236.84831000329774      42246.45982426335        -10926.894675726957      -57496.974548339844
-194.01749797583219       84.27138827573418        -212.89677340450572      29603.448608398438       -13580.09130859375       -53259.541931152344
-210.41861559525168       32.14501565785233        -215.15618213218093      33854.75274658203        -7005.9122314453125      -53069.239990234375
-235.92522533098895       11.565033987739143       -210.45072927174036      44700.92160129547        -1292.0553894042969      -41403.61627578735
-223.43382907378253       25.80469288986948        -197.2990392750381       31944.406169891357       -4594.060699462891       -45525.59716796875
-197.78958832409384       114.31756345162613       -190.3993058807952       25875.033836364746       -15964.335083007812      -42029.079010009766
-198.21360775287758       90.50963375202181        -192.76190867282074      25028.26434326172        -13023.717529296875      -46805.29821777344
-230.04494018173529       63.818637794304415       -185.34511191312816      27731.9833984375         -8177.322509765625       -39052.211669921875
-216.0530140235583        76.3667488296817         -177.24167684164397      24648.673217773438       -3827.4744873046875      -40052.90185546875
-234.81269544481532       39.87625032696158        -181.19288647339002      28725.710361480713       -4993.324254989624       -38207.59133338928
-230.15164427580325       -38.137318166675904      -239.9011078227435       53798.665771484375       8031.0889892578125       -45658.44775390625
-219.2387980829936        -21.70812358727156       -230.24040961182746      45805.95886230469        5318.296794891357        -50270.39221191406
-234.96982380086177       -15.383525234287063      -212.38326675468463      44250.398681640625       2170.557849884033        -41647.03096751811
-213.87702535851218       -57.30770596867743       -239.9011078227435       47905.99996948242        12732.206146240234       -51546.318298339844
-221.23457192120617       -82.2330669251744        -239.9011078227435       51980.45999145508        20352.242866516113       -43650.8723449707
-175.71802797683432       43.395138642009194       -236.84831000329774      27057.29057897228        -5490.698325526645       -75458.69604492188
-178.65609287668548       5.462027415127609        -240.33930178908395      30445.993534088135       -566.6226501464844       -70238.84399414062
-206.7158881233633        -124.70567384846814      -211.69384655136574      29189.926330566406       18818.282135009766       -35732.410400390625
-218.10007615645398       -101.70712687696718      -216.265482884144        30943.531860351562       28618.485595703125       -46011.189514160156
-207.94702303236764       -93.90118882851134       -232.02256617654365      44433.799560546875       21256.72930908203        -47118.996032714844
-185.22168526707193       -106.97690234665639      -242.12145835380016      45628.63046686814        25223.745345558116       -64608.51721191406
-177.38830747367192       -124.53424463969743      -235.06997235875195      42165.58776952616        28817.114720971564       -58256.717834472656
-188.72945720587694       -134.45707809305333      -220.39944384871723      31275.353515625          20772.888427734375       -39593.63464355469
-185.84089184792532       -150.80695822200227      -228.27798549491703      30960.30517578125        23683.767822265625       -38848.64697265625
-174.49974211572035       -140.88412476864642      -242.9485140049518       44225.51144960829        34738.048128648996       -58788.585693359375
-150.74821653017347       -149.01577311960813      -242.9485140049518       36031.41401423697        34890.24410935233        -61700.9833984375
-178.1789738737313        -132.67054681191846      -201.8320911340545       27120.59228515625        19264.745239257812       -40149.83483886719
-202.83268926375823       -126.96818606227005      -175.91409784276834      22131.050758361816       14612.528244018555       -34154.180908203125
-196.1654047912177        -122.91914256733325      -193.12649383670302      25601.668548583984       16620.786346435547       -36979.99719238281
-206.168895317804         -27.542400780192413      -210.91901318999544      31918.688598632812       7067.855041503906        -53896.33154296875
-221.89992103567212       -21.217802427207914      -193.0618703328526       30502.257354736328       4228.813642501831        -45273.24291860998
-202.93683452237318       -46.96581136972495       -220.5797114009115       32009.317321777344       6622.3785400390625       -58421.63333129883
-232.41185026231366       -39.07549872199335       -175.7434416297723       25110.25457763672        4529.184951782227        -38279.87983830129
-178.12321382965945       -41.11280333643893       -219.364582360075        29259.576614379883       10022.327392578125       -62220.71635437012
-181.35527462509023       -21.689392746906382      -209.70388414915902      24853.166763305664       2977.0254395008087       -60659.916496276855
-164.87006758522466       -10.661835341387311      -229.02528057099101      26563.93475341797        1362.7189016342163       -69256.49383544922
-151.42982015939347       -70.44337523583737       -238.68597878190704      24846.6168530275         11841.78370511249        -69923.17309570312
-160.41175028409896       -48.05571204885871       -238.68597878190704      35462.11633300781        261.82177734375          -74017.27697753906
-147.13125939633477       -23.69204403425894       -238.68597878190704      20885.554443359375       3586.12060546875         -71891.33374023438
-209.47239854460074       116.12185203375296       -171.7289940192466       22791.139625549316       -13250.426300048828      -35875.64138793945
-220.7241224797634        92.3988436566414         -161.4764357954104       20975.850006103516       -8855.588012695312       -36176.45947265625
-129.0173173032187        55.315536905526585       -242.51689362666764      25104.087341308594       -12811.016418457031      -76754.16815185547
-105.19499505150704       45.473783284142726       -242.51689362666764      14654.246124267578       -5983.588218688965       -75368.23671722412
-174.97314604152902       125.21229549258851       -181.32763515424645      19202.79944419861        -14964.931474685669      -43782.847106933594
-186.65595626203586       127.01658407471528       -162.65732329269787      17761.76693725586        -12503.873016357422      -36915.02893066406
-136.34488758479887       94.14158709081245        -239.47318567138234      23269.86572265625        -16868.138427734375      -73276.63513183594
-121.83933944091824       114.03019324293729       -239.47318567138234      21257.42236328125        -19965.851806640625      -73332.97663879395
-125.58114514638346       75.87249702573513        -231.99007929804995      22009.36883544922        -13813.639587402344      -71833.27606201172
-154.53640305280513       102.2062018111965        -229.2265664899951       25870.516052246094       -18585.974975585938      -63880.40466308594
-136.256239987646         129.96481957894346       -195.46700402726526      18022.071258544922       -18108.49217224121       -51748.51843261719
-154.7769288379175        143.93825313411946       -228.77040649983644      29459.779876708984       -27093.1328125           -53509.26344490051
-140.0914730518678        125.49431964276701       -218.24359217121875      20472.292602539062       -18638.326171875         -62016.69387817383
-133.05315002407644       176.7411721712759        -239.01702568122366      28725.544441223145       -37265.42445755005       -51619.424543738365
-125.8687704471223        134.53733740722637       -228.490211352606        21031.798950195312       -22236.75927734375       -64951.96132659912
-165.61047763335037       151.61922216372537       -213.25611371110858      28199.72410583496        -25610.453506469727      -46341.998473882675
-107.76675449847373       178.25071092508273       -239.01702568122366      26949.5224609375         -36877.24206542969       -61812.57360839844
-142.91404564364922       188.35888314948474       -224.34649717118893      27827.267028808594       -36680.92510986328       -43918.742552280426
-151.97029927837352       162.92289659053955       -186.05561623850764      18575.93074798584        -19521.762664794922      -43405.77367401123
-156.33210626354634       142.26216784787135       -190.4795255671551       17692.78973388672        -16413.590698242188      -49176.68896484375
-140.55422623317196       152.9812708985788        -239.01702568122366      29315.921997070312       -31188.18716430664       -56440.51169204712
-161.2486706481776        172.27995090639357       -208.83220438246107      27188.245849609375       -29058.537475585938      -41609.52556371689
-99.91943955595995        135.59221241773918       -228.490211352606        18656.544609069824       -23283.602127075195      -65952.41128540039
-89.31849981640688        155.5456846628984        -239.01702568122366      19118.911682128906       -28786.552368164062      -67041.97671508789
-95.89000854975588        115.08506825345007       -239.47318567138234      16281.230102539062       -19045.993530273438      -72346.09256744385
-166.15964141324113       167.34690343653233       -166.73220697122574      15620.328002929688       -16751.381408691406      -36120.881140232086
-182.2042586189208        148.49046327599095       -152.48580443832464      15884.17416381836        -12959.523086547852      -31813.304321289062
-125.6961976699474        200.5431435321208        -208.58941387878926      18930.89907836914        -29312.12939453125       -39679.17510557175
-105.96888097518486       197.11866222045538       -223.259942388824        28258.14892578125        -33058.272033691406      -51928.31213378906
-148.46839428937835       183.049338489449         -157.155562119819        13808.69467163086        -17197.821166992188      -32277.110510349274
-134.27905215451074       178.62533164345624       -176.4789713871009       15699.34719467163        -20993.0362701416        -38242.54261636734
-126.33957555061298       200.16664634194635       -183.4984762386547       15468.171905517578       -23891.82305908203       -35998.83063745499
-92.77061148031342        216.72104955230913       -224.14402453034384      18387.351179091685       -43764.53116673295       -44865.02752685547
-56.444152792044605       213.057903533632         -239.9011078227435       11266.528540752877       -46904.437309503104      -53795.39025878906
-81.97045742172936        220.71290341646323       -239.9011078227435       18320.156661525212       -50823.495422531574      -46962.38000488281
-37.536374493488104       229.854190955666         -239.9011078227435       7329.811092497016        -52114.338459304505      -47980.992919921875
-178.57606097673252       -9.698279688356038       -192.90721077164113      22413.463745117188       1255.8279027938843       -55494.81117248535
-205.37729974672425       0.08526030017602937      -186.3640891325912       19552.602828979492       -420.808837890625        -52481.339599609375
-175.87687922832777       17.453140473677955       -223.54262841156603      21099.97528076172        -2998.2642822265625      -70110.46789550781
-176.42804109298154       31.439776588277287       -220.05163662577982      27165.305419921875       -7784.3028564453125      -63960.42687988281
-162.09085393686686       1.329277717163035        -212.22860719347312      24124.231475830078       -358.4781575202942       -64091.38946533203
-192.94059277617657       26.499519163210064       -210.39093841486377      24080.119614601135       -7263.515506744385       -60838.86048126221
-205.95580625470743       20.15919639522721        -192.53379555772094      22312.502380371094       -5175.877990722656       -53164.37805175781
-168.79750786935935       -16.741196547610542      -179.9398665463712       19959.241943359375       1789.3925590515137       -52628.42130279541
-150.53661028438663       -7.114710767166153       -184.2950502215386       19306.909423828125       875.1860504150391        -56577.98594665527
-143.80261170856474       4.868463517155571        -206.92309265772445      22101.0185546875         -641.4466276168823       -64942.149322509766
-183.52265291280045       -4.973659741090277       -159.1247945741175       17941.698608398438       854.8463745117188        -44012.43768310547
-235.39327737823064       -15.620676689266205      -137.32035132422843      17285.239196777344       -380.080078125           -29109.81964111328
-222.323374613041         -21.454953882187052      -153.71324061668213      19459.581909179688       1516.867431640625        -35978.015869140625
-236.26021452262188       16.308577042611336       -138.53262722566075      18434.85498046875        163.60430908203125       -28428.216857910156
-206.34376414203388       1.816234330633226        -163.89569415316052      20419.35986328125        -707.9179935455322       -41988.37097167969
-145.32271755893422       105.91586011847907       -190.43991859869857      18482.963829040527       -14909.4429397583        -52501.74920654297
-174.18654832689003       77.19003593879523        -210.5916310745675       23017.83819580078        -8099.894073486328       -59919.17971801758
-146.0051455665343        31.513038636091522       -202.2270541284744       22236.330841064453       -6146.821563720703       -62776.646392822266
-164.13453654334293       53.91585100443023        -220.8382502559547       26155.89520263672        -8760.201477050781       -64416.82537841797
-163.28985681549696       104.02574202125773       -180.83186819563127      18697.50956916809        -13234.63514328003       -47703.709060668945
-178.38265810393537       83.42828141508286        -190.45676634288245      21072.122436523438       -10662.62094116211       -51057.545333862305
-164.84454965949018       41.96048895069832        -204.0415768784368       23860.064727783203       -7351.325466156006       -59426.579162597656
-130.00267801292176       37.94405343757704        -211.54062113265996      21687.46844482422        -8478.936981201172       -67674.20721435547
-153.686662622206         88.70061736947167        -213.2165067426521       21650.113342285156       -12724.779525756836      -60861.03253173828
-142.113225880711         51.773721609351256       -226.50683387932466      24512.25064086914        -10327.999389648438      -69738.4263305664
-138.67705372387573       72.33068172955981        -215.98001955070697      21417.531860351562       -11330.622833251953      -64817.53405761719
-203.47549857366175       33.83448542885512        -175.89158787271745      22017.955627441406       -4147.127334594727       -44637.03576660156
-182.36289032253765       68.88912808927853        -174.40047962835027      20694.026218414307       -4829.399082183838       -44669.45666503906
-220.73734871971595       30.23688886377024        -147.94400704402696      18826.871154785156       -1547.1798706054688      -32916.17141723633
-203.89080110431757       21.578823344712987       -156.9141846790731       19083.76611328125        -1631.177604675293       -39210.96990966797
-209.96901193993747       82.38476801045746        -148.87844731689566      18083.43423461914        -7545.287677764893       -33734.962646484375
-178.87679366163954       50.695520559259          -177.73867098251733      20714.28596496582        -5669.0282554626465      -47548.7586517334
-205.29790348373237       66.35267318349777        -164.6436883631292       20559.369415283203       -5881.866981506348       -37483.52716064453
-220.32204618906013       42.49255094791237        -166.92141023767132      21758.15789794922        -4135.673294067383       -38256.24981689453
-207.33567187865088       79.95337685279672        -131.8883948923464       15442.719230651855       -6179.928073883057       -33577.54998779297
-185.6629675842708        89.33815672127155        -128.6867621604479       13281.224212646484       -6878.169607162476       -35921.918212890625
-188.29630764555748       91.7695478789323         -145.67681458499717      15920.775756835938       -8243.19930267334        -36086.829040527344
-159.45655879179762       99.26763696739242        -162.11000363255602      15938.302368164062       -10171.150115966797      -43349.74050140381
-176.23497590281852       112.67835556607858       -149.2031323369632       15401.223220825195       -10347.499084472656      -36262.77648925781
-171.5178905345366        78.35882928024613        -158.58368588059         16616.818481445312       -8070.1163330078125      -42196.024642944336
-200.76856609200993       60.81761269314041        -118.3718443030467       12980.158939361572       -3670.1986389160156      -34911.729919433594
-206.34995513207366       41.372878433203994       -123.36766826893428      13981.459032297134       -2816.834159851074       -34866.78611755371
-221.8728209349796        27.444566612045083       -113.95628845056805      13364.937408447266       -1128.0934143066406      -33620.220153808594
-219.88035161740078       85.08821445104836        -114.43655286383645      13865.713836669922       -5376.099983215332       -30682.213623046875
-213.3132458307598        65.95245029139207        -100.92000227453671      11187.996536254883       -3425.4327392578125      -31924.890380859375
-230.97072859737415       44.52371921346744        -102.33063371648524      12185.886840820312       -1672.1707153320312      -31484.980895996094
-221.97341670521976       32.32903184913317        -79.73907690476675       8545.196258544922        -1355.6559257507324      -29863.530894879787
-236.36081029286208       21.193042279699426       -68.60112996557373       7278.181335449219        -766.2016830444336       -28179.886128189435
-212.87550904282517       15.249879247710805       -91.36473163884958       10988.867431640625       -565.9382781982422       -32826.21923828125
-217.48484964343768       -94.8471558371904        -154.58031670637482      18881.203521728516       9631.20864868164         -32119.933349609375
-224.24720791150833       -78.59036666886144       -169.5723621692529       23037.382354736328       5462.458251953125        -34170.85217285156
-217.2988709395234        -57.44831801132491       -166.00804903982058      21294.05633544922        4736.853698730469        -36680.571784973145
-201.09151605133664       -106.70591035828255      -162.9920909057085       20286.236541748047       11478.802467346191       -36066.65887451172
-225.18602445891682       -11.864106081653883      -88.67598330860646       10509.46810913086        138.58189392089844       -31281.731170654297
-237.26211818546741       -13.84810289964208       -67.23364792752454       6758.350456237793        547.7886962890625        -28015.587557659055
-233.31639920667996       -31.59867244919715       -110.05526421889266      13374.098999023438       1775.8065795898438       -30315.47208249569
-215.65876523486276       -98.37150426604371       -132.6306802695137       15691.47599029541        8134.6110496521          -31192.871337890625
-222.3318634086607        -82.4561628358276        -112.59938794716963      13416.867004394531       5598.884490966797        -30692.39111328125
-169.14382329335513       -154.41083743071803      -194.19633999152651      23375.489532470703       20954.38916015625        -38285.177307128906
-169.76195960483415       -169.14158322653068      -212.7636927061892       25328.166473388672       24918.19775390625        -37701.03854370117
-143.8667169946543        -187.2868866434381       -234.48570721127217      36072.77621246634        47321.01764981822        -53485.18048095703
-151.00876097448173       -169.88809589365482      -227.43422121622396      35806.06967686218        39942.43410411331        -53513.10934448242
-176.08582144090724       -160.70726698723266      -170.94144240051654      19555.47230529785        17727.629653930664       -34243.07976150513
-191.788256493824         -143.01601986336985      -161.3647975491098       18779.61368560791        14386.088027954102       -33208.19201660156
-204.98352030626265       -88.00494934690911       -199.55329867817977      27698.381408691406       17397.750061035156       -45965.54605102539
-172.36420454216204       -52.33598676287783       -202.6523981541108       25574.13995361328        8928.045654296875        -57006.84548950195
-160.72115146477805       -75.21397110992012       -221.9737945759428       27635.854501063248       13262.046513297146       -63527.48546600342
-172.10512941688063       -93.27472481659832       -225.4092741478359       35747.624218419514       19212.87326604746        -62068.535705566406
-188.0471758962208        -101.83182935343763      -191.0848381407736       25318.19443511963        14682.349365234375       -41374.57287597656
-194.83046718217625       -80.19901129845327       -215.3103819705794       30785.138916015625       15564.774353027344       -54195.63737487793
-177.5059716774212        -48.54477233339928       -163.74584148892328      18258.93797302246        4125.186950683594        -44790.82579040527
-165.81771223021968       -39.95549303259979       -180.02435571792486      20703.203582763672       5545.7481689453125       -52919.72546386719
-205.28780180136152       -78.5334749410304        -179.839304877285        24158.894744873047       7934.4638671875          -41394.87338256836
-198.3394648293766        -57.391426283493864      -176.27499174785268      22064.755859375          6015.66796875            -43411.03643798828
-197.1778252348758        -58.188994796163854      -203.86752719494726      27424.946044921875       9604.938110351562        -51694.46063232422
-188.3514573913197        -92.36035494755892       -171.37084433987886      21414.97930908203        11088.911560058594       -41001.041564941406
-120.9814957971666        -2.329826775246749       -223.71976603524237      16307.078010559082       434.8448486328125        -69074.64920806885
-121.53092983657886       -18.89922126811092       -238.68597878190704      17366.938232421875       2914.6925048828125       -73969.73623657227
-101.5582532633975        23.539157270727053       -242.51689362666764      13885.876342773438       -3220.6019134521484      -75510.54119873047
-113.27002764731992       19.551242720336685       -227.550680880003        15494.781677246094       -2353.5603637695312      -70366.02911376953
-155.85161938330467       -122.54557169614192      -220.96700036865553      29782.849971452688       22792.860858275715       -58607.537185668945
-158.46958108863024       -103.36562338052273      -211.30630215773948      29133.278717041016       16053.402709960938       -57830.06024169922
-139.1438754604728        -134.08288566137486      -228.84554201485537      26989.56502246864        25105.023018549597       -62317.7216796875
-152.60546215818235       -145.03702880332497      -194.76389651146485      27322.75378037797        25666.76685741458        -47888.180419921875
-161.64061273855853       -123.29673818452537      -202.39964765399287      29649.187042236328       17272.710388183594       -52464.35824584961
-164.25857444388407       -104.11678986890618      -192.73894944307685      28745.21452331543        14382.729675292969       -50959.30294799805
-121.4002901279692        -123.90092427138673      -235.89702800990358      18675.181381225586       18890.01104736328        -69488.6226348877
-127.42313568855587       -69.33731650086578       -230.85574120184427      17474.1728515625         9876.914077758789        -69956.67108154297
-133.6055385183908        -93.58565875234241       -211.35460622387654      16347.17465209961        14414.232666015625       -63300.405029296875
-89.69749110146341        -69.67082285890193       -242.1697624199372       12668.622924804688       9955.493225097656        -75112.37734985352
-112.37279241535292       -86.09954521738815       -242.1697624199372       16237.051391601562       13005.638671875          -74590.36276245117
-136.71446699394042       -74.10791237494854       -214.14355699588006      15803.429340367968       9069.862986730206        -64205.2666015625
-113.24399148056159       -102.58364567797345      -228.0667904298408       16997.2109375            17070.16734313965        -70024.02961349487
-65.01641981870604        -76.79457143357247       -242.1697624199372       8764.617980957031        10510.495666503906       -75268.44906616211
-89.46146113572307        -215.9925170853267       -236.29508258259523      21182.74273083131        47216.69349018277        -45160.69030761719
-33.88497959753991        -233.9287183631568       -237.96857033979924      4800.578687381302        53304.56124523506        -44797.329650878906
-107.76620474692677       -136.229547010859        -221.1844569467871       16144.150390625          19868.493530273438       -64038.79821777344
-103.87085591216976       -178.31247621733598      -235.28742893688352      20621.553833007812       40401.356689453125       -59675.098236083984
-93.26931455949358        -150.73172407756462      -235.28742893688352      16017.564231872559       27562.351531982422       -66156.73890304565
-97.43824812023364        -196.66311329381273      -221.58251151947877      23683.70245361328        33438.92761230469        -50484.53649902344
-117.39289415494294       -202.48423417519106      -206.06821873075094      28812.31802368164        33172.7858581543         -41982.71742248535
-123.82550194687906       -184.1335970987143       -219.77313614815571      23591.38134765625        41654.60595703125        -52584.55923461914
-130.96754592670646       -166.73480634893107      -212.7216501531075       26700.489449510827       33655.68185969502        -53133.84408569336
-125.50979007943042       -146.41150840084714      -214.1329709517389       21902.7362381737         24693.655522050594       -58373.03349304199
-133.18238342188607       -156.6144850544138       -198.61867816301108      23371.027099609375       27293.951904296875       -50601.47082519531
-74.27261681463682        -153.6348202364536       -223.15630135954544      9590.591278076172        26128.773986816406       -65226.44366455078
-39.99946774089964        -170.9918888216223       -237.8688724226619       6089.045347846368        29606.072017800736       -68620.58087158203
-69.58979934066379        -204.15070005983313      -224.16395500525718      13108.247749734397       38144.39194897889        -50934.26983642578
-62.808867973846525       -221.8550200800508       -212.1325253450564       10504.789834543286       39661.90617411713        -44043.858489990234
-77.5665863251744         -184.82129626831914      -209.45138394214075      11931.484375             27025.989379882812       -55086.05847167969
-54.25108909224649        -147.9470106873185       -237.8688724226619       4356.564758300781        26134.869262695312       -73517.6010131836
-45.263277111962104       -213.71342218248907      -225.8374427624612       7203.459250269801        41528.047445234406       -50201.04708862305
-52.04420847877937        -196.00910216227138      -237.8688724226619       9827.518406784844        39739.44065620622        -57379.68670654297
-195.7587299733311        -111.8493931202722       -130.35364340038456      14064.60073852539        9042.72762298584         -32692.96466064453