% Model:              Untitled.mph
% Version:            COMSOL 6.1.0.282
% Date:               Dec 20 2024, 15:36
% Dimension:          3
% Nodes:              1882
% Expressions:        3
% Description:        unit magnetic moments, 1 component, unit magnetic moments, 2 component, unit magnetic moments, 3 component
% Length unit:        nm
% x                       y                        z                        mX (1) @ t=1             mY (1) @ t=1             mZ (1) @ t=1
-278.0735175312841        -47.71720850088466       18.778011147536578       -1.0820834062867791E-4   -1.103630656853268E-4    0.999999967253831
-277.77467884793714       -48.517117503971576      -12.751947617849423      -5.776300805398105E-5    -6.296868346489099E-5    1.0000001424824343
-278.0735175312841        -24.540933922763617      41.95428572565761        3.713245110426966E-5     4.9786740718569835E-5    0.9999999750592063
-276.4681754553567        17.427285788318965       -50.24702465125841       -1.2696046232223469E-4   -3.127070900852103E-5    0.9999999324467946
-265.25630160366535       -24.755015762211826      -23.895646747402566      -9.469750118412974E-5    -1.0215056692436081E-5   0.9999999353469736
-276.56907798066004       -15.711942470746857      -50.36004347543538       9.592078348657327E-6     1.2649400590732973E-5    0.9999999696921045
-247.89977889205514       18.97414970646716        -131.08324651122152      2.0199970313985273E-4    9.066381389529867E-5     1.0000000728374336
-248.20366835580327       -17.622921197977305      -130.79848465408108      2.5512223149536263E-4    5.83168864376933E-5      1.0000000774618616
-228.1846768516304        -37.25873455479071       -158.67799686108208      -9.521380097834188E-5    -1.5877559728984747E-5   0.9999999167786578
-273.27144770963224       18.924637416729723       45.242102333416135       -2.111664213839945E-5    6.2223228005196024E-6    0.9999999896002194
-261.6469278319946        -6.159091317813763       33.19180738403699        1.8657086896437875E-5    -8.584148224538257E-6    0.9999999878825354
-249.12855058772283       -5.573264154175048       -1.1281663236371955      2.237124068107894E-5     5.5200229948314764E-5    1.0000000080800913
-220.97822858683725       52.294826421650335       -160.79625535390764      -5.936313147111631E-5    -4.5893347906011643E-7   0.999999929529779
-220.83311080372215       32.95117469904227        -140.81771471345922      -9.39399111667474E-5     -5.796782259863578E-6    0.9999998887976066
-254.48084509434736       34.60530260819299        -68.0433912762418        -2.18771264003455E-4     -8.79248537200697E-5     0.9999999373323154
-254.13991567935636       86.18839355871174        -83.40174087929842       6.968130080275948E-5     5.151936607074422E-5     1.0000000125816781
-234.08500605995513       18.15093239419869        -83.3901342901031        -2.130973885402112E-4    -9.035174120686031E-5    0.9999999533531208
-260.632012987317         52.60653674033549        -89.44897620040815       -8.308357869756101E-5    -3.454047189253275E-5    0.9999999378143939
-240.23617395292476       36.152166526341176       -104.79571921426944      -4.06563891227791E-5     -1.813309710199177E-5    0.999999987627801
-213.16950586459177       50.12919151891629        -114.53018741650715      -5.7399796484473126E-5   -1.690371759754181E-5    0.9999999021434997
-228.9907741891006        117.75771000079571       -112.5110090595286       -1.8308642712450614E-5   -9.42319058010792E-6     0.999999992346049
-215.23098677900313       103.90659331571348       -146.6343044004112       3.7954632034903705E-5    1.5656043850530507E-5    0.9999998704441386
-228.70093579873745       96.91389650849581        -93.72619121089342       -4.687295126797513E-6    -9.86067875567579E-6     1.0000000017278394
-208.12636501836505       77.30906468269468        -109.50789473424089      3.560941215778465E-5     2.3140160389371494E-6    0.9999999782221097
-206.1910493834528        79.86178799611464        -142.96386270715138      2.515285138853398E-5     -5.352355652871737E-6    0.9999998981500041
-241.74047831360406       19.110192298456557       -9.206984973056056       -1.2832094811807556E-5   6.662265367457577E-5     0.999999995202668
-270.2857040485151        55.658116363967906       -20.7177474430913        9.293707399767348E-6     2.247863166938551E-5     0.9999999947528083
-241.80627637954507       83.24171542409714        -55.643153325086         -4.944759219891988E-7    -1.898297505797259E-5    0.9999999944654993
-257.7673268042432        33.0676689494856         -31.861446572644443      5.801097418649782E-5     6.048395443773345E-5     0.9999999987152162
-260.122845462691         89.23997318234414        -37.84678670010259       -7.766119944499357E-6    -2.2119527994374174E-5   0.9999999937994993
-235.77999644323396       50.24568576935964        -49.65781319762786       2.7057307130683274E-5    -1.5172464561580473E-5   0.999999990323668
-270.59861101593907       54.85731318236621        10.547720599783844       2.717131828129589E-6     1.6121677458416585E-5    0.9999999598257971
-254.57059905851887       34.56502057789636        17.27513125578801        8.116544325222001E-7     3.4992457308109884E-5    0.9999999913289817
-224.67880291369275       167.98723740357144       -43.09772980076552       7.69269053263402E-6      2.5404175396231364E-6    0.9999999408496576
-217.30503636492557       161.9251737938099        -79.67891427438413       2.0296251199635993E-5    1.1042295668004947E-5    0.9999999535145813
-211.9586275051801        117.09378659975107       -67.866878237436         3.831287617862243E-5     2.3227131721123202E-5    0.9999999017955029
-218.69792220146664       105.16720818645341       -46.40607346176385       1.5230628052972244E-5    9.46444117363207E-6      0.9999999211921995
-203.92555542145234       195.0816551633162        -25.96869054375424       -1.0323168583736248E-5   -7.934804733873243E-6    0.9999999883447226
-212.24846589554323       137.93760009205099       -86.65169608607117       3.659207094276752E-5     1.856441781366937E-5     0.9999998982600515
-199.9001689488602        200.18456025632918       26.465001907635532       -4.3807181248792344E-5   -7.3477830197998165E-6   1.0000000049152227
-220.66929768863275       173.21629463789392       43.28331286961151        3.731057333011673E-5     1.4699612357535792E-5    1.000000001679087
-172.12811353159015       221.18834021182212       43.95520118152051        7.053668705398668E-5     2.849923454065271E-5     0.9999999993268155
-196.86719782272039       187.56951411409148       0.8527721935983443       -2.360864110519121E-6    -7.1881225792748805E-6   0.9999999889083353
-218.3498105186863        117.91209500973127       -24.90264919971491       2.1050022871557807E-5    -1.307526917795139E-6    0.9999999300608293
-205.4478618569953        156.81614317912238       4.559829830663873        -4.972503779946508E-6    1.2237986023176665E-5    0.9999999969859519
-226.3976950257843        146.3556057705001        -20.111952700207837      -5.841338366730163E-7    -3.194802568632218E-6    0.9999999608600753
-249.50721267064372       130.76492896158464       -13.421981619945756      4.7347566598657934E-6    -2.393677919871878E-7    0.9999999797822222
-222.08116344142636       151.75720075177162       28.068111872901923       1.4697406120991923E-5    2.341767833053961E-5     0.9999999997747943
-241.45932816354582       102.32141820081583       -18.212678119452836      -5.264581951665996E-6    -9.735018841970333E-6    0.9999999794600757
-249.52309391817593       130.89108110289413       20.5253685990415         -2.493519580859584E-5    -1.2578532513606484E-5   0.9999999949020948
-248.26316897214946       84.78021682551811        14.254778236849372       -5.533192718064674E-6    -1.1183056966658522E-5   0.9999999196667588
-260.4878015628344        102.84784262403721       35.86378569833243        1.909635270751876E-6     4.554662500354275E-6     0.9999999221000532
-204.55946200680083       164.9771228900246        62.02601336072972        2.897942617384758E-5     -1.473972288489588E-5    0.9999999963738228
-205.97132775959446       143.51802900390223       46.81081236402014        7.11781932339549E-5      6.973733018345932E-5     0.9999999952172456
-242.86832031494922       -31.422216960784734      -102.45475084735148      8.825692623687545E-5     2.0402642427493637E-5    1.00000003045746
-257.21756677347764       -80.80411191469085       -81.5731312377146        -1.0707477872710606E-4   4.788561711568927E-5     1.0000000516337426
-245.59722814093237       -38.55431152501926       -39.63580686260844       -5.565664853271474E-5    -1.3609379138089492E-5   0.999999933399282
-258.1156053852041        -62.316413266779         -28.492107733055285      -2.8278957367437547E-5   3.163611565101575E-5     1.00000006720703
-236.41326295823146       -12.826380188482768      -81.33392778032555       2.49201791672396E-4      1.061295199568593E-4     1.0000001219944894
-263.2808866610317        -85.97037688414865       -49.308609041135554      -1.0357698896704016E-4   -1.0017934201422273E-4   1.0000001394887945
-256.910004517927         -29.511238233554284      -66.10020359064126       1.2350328592795944E-4    2.269079378938897E-5     1.0000000296227993
-263.36506187464477       -48.10707500585626       -87.22102665766718       2.967699848215914E-5     -6.067828926766435E-5    0.9999999398646338
-231.91762735224907       -94.50773356803634       -88.16781474867057       -7.121820707433908E-5    6.591111379190964E-5     1.0000000413996375
-230.26995070930178       -117.86032318836739      -109.32985413788825      1.2202488455448253E-4    1.4561578072196316E-4    0.9999999497648936
-181.23266469758042       106.59296397774904       -153.09112980616285      3.1336764951225827E-6    -2.907365051020698E-6    0.9999987042449194
-172.0631663998993        116.67622553724927       -180.310479360771        -8.741573473232504E-6    -9.029328118194813E-6    0.9999951038532987
-151.65256060755257       96.62136404333422        -208.69321409400814      6.254777460205543E-5     3.1798591243135664E-5    0.9999965173563707
-172.19272730203005       82.54815865815021        -149.420688112903        -1.4443404499299303E-6   6.9538778117908456E-6    0.9999995968358257
-251.71648378732937       19.32976111614747        68.46174790208362        -4.613137342286548E-5    1.9421237811885733E-5    0.9999999820202632
-250.62198131853677       18.722885699816278       122.76207009445463       -5.0525720464674785E-5   9.845509455439477E-6     1.0000001006678783
-261.58668896319523       34.7635411428948         94.01659327181008        -2.0088272578050444E-5   -1.3394032197213487E-5   1.0000000882412983
-251.0768408971696        -17.224810279223227      122.21899000862143       2.9127540839247754E-5    1.0543503974747838E-5    0.9999999920687519
-240.0919639096917        -5.753967618396018       56.41145295270447        9.94146527794301E-5      -6.0625781346478156E-5   1.0000000193734015
-234.43863753174855       97.57029295707815        48.22873014980364        5.491884406525394E-5     3.128644594736832E-5     0.9999999469491614
-207.3640942052582        117.37435968806571       51.63301354163094        1.3347395876379656E-6    -1.0015097219861417E-5   0.9999999334343761
-224.8506737495695        52.46374548905831        29.640075707259232       -5.161890103945948E-5    -1.6645197093916624E-5   0.9999999841265914
-222.2140049410636        79.50266715855905        26.6197226883206         -5.4078241179224615E-5   -3.799305878158344E-5    0.9999999562077074
-225.6673197562435        37.22848602730943        57.65041777543379        -2.3155774650782538E-6   -1.7571735966906204E-5   0.9999999969992862
-231.57377421006353       89.0498057821075         72.61023496091637        -1.1878065990121391E-5   6.624065482893702E-5     1.000000089441048
-240.05714487558407       56.16595761107606        98.9288811418673         -1.4660980892539178E-4   5.107540389172105E-5     1.0000001951753568
-204.49923088357318       108.85387251309508       76.01451835274365        -1.7113066275069498E-4   -2.4300250327000504E-4   0.9999998343592849
-251.46513145959506       89.46884287134404        92.52754653517577        -1.4762266428646164E-4   8.709263553672272E-5     1.0000002337226532
-220.1657876260526        55.74692052183953        79.01156956760788        1.4247316743400674E-4    2.6045123978949684E-5    1.000000040250181
-219.88828652793873       97.45902184465828        147.45599854477857       4.5216035864430946E-4    -2.4946465343023063E-4   0.9999991862325424
-212.76830856850225       129.12695476535964       99.71065288807323        -5.05054919758239E-4     -3.817910549734021E-4    0.999999839284029
-233.37330161279527       111.59999459169202       113.25020842268565       8.631149702455498E-5     9.40818755257826E-5      1.0000000645070457
-214.2213061373937        159.10653582645256       90.54434907367008        2.1297768262201072E-5    -1.6760084026307961E-6   0.9999999789200249
-185.79283489749366       179.7055863178216        110.45471012008092       -6.616131360948566E-5    3.032105779005099E-6     0.9999999727864303
-121.81296748297311       255.38100733466374       33.262787394482814       -6.145604527969368E-5    1.023811645762475E-6     1.0000000017590225
-106.76519744112373       249.18558494370203       21.03382207686761        -4.163549615062469E-5    4.867486076135326E-6     0.9999999899722338
-78.12226155018332        260.2619339762355        36.46553682516382        6.830229298033223E-5     -2.7287732107302385E-5   1.0000000098652777
-93.1700315920327         266.4573563671973        48.69450214277901        -7.045149248338739E-6    -2.8231093314925737E-5   1.0000000001356644
-87.28476690676742        260.68446382306234       80.76296722415108        -7.381874388676237E-5    2.660751977442299E-5     0.9999999163390776
-108.26836029758037       243.2388996634626        102.0599244842417        -2.077225054411514E-6    -1.2735292585601613E-6   0.9999992536379372
-260.6454144767869        -91.01441559964708       47.70801348649549        -2.5660587810675487E-4   -2.0525474252485948E-4   0.9999997206136937
-254.9424672738654        -85.46807500016706       79.44718942639291        2.639092349961451E-5     5.018917634776543E-5     0.9999999884771186
-255.5502581607555        -43.94366422949677       56.83473707713028        -2.1091234649780284E-5   4.123515081342936E-5     0.9999999788638757
-242.87730694851993       -36.627540585956375      93.01554743815862        -3.761300960146084E-5    5.4131033249218815E-6    0.9999999934751642
-237.26747777444677       -28.04067989878033       64.56449364817297        -3.821626087604345E-6    -4.360789252577854E-5    0.9999999965238091
-261.16008733482863       -52.53052491667281       85.28579086711594        -4.122337974393887E-5    1.2124960265481878E-5    0.9999999913499171
-255.5502581607555        -67.11993880761779       33.65846249900923        -1.2622800943266609E-4   -1.0665717001870329E-4   0.9999998696629783
-230.9198253689559        -91.90516223223206       90.53215297660164        2.7803888570651525E-5    1.4345456490606904E-5    0.9999999918226617
-232.80785989708693       -109.28601125987035      111.93447320359775       -1.221912032215153E-5    -3.3812132260157296E-6   1.0000000018039532
-220.84701196539012       -94.31327676207187       144.36889035618617       1.271485475188805E-5     -6.678971142095027E-5    1.0000000053810518
-219.2532427854797        -58.56248844932008       96.4141254078711         -2.8584509286891565E-5   -7.862890447238676E-6    0.9999999960909919
-223.82580953967556       -44.16640330746422       159.25664941989777       -7.338603098116119E-6    -3.997724405939217E-6    1.0000000081793807
-210.85470952065083       -66.10135117082793       141.7476080457958        9.21905676657513E-6      -1.6431374548109135E-4   1.0000000095046222
-224.12007488789618       -25.7964640223507        132.70420469857882       -1.3097371471266963E-5   1.8584411259300984E-5    1.0000000040430417
-211.14897486887142       -47.7314118857144        115.19516332447688       -1.0464284198119144E-6   -3.760527038752555E-5    1.000000007467149
-206.56102398620632       -35.07195609106046       55.03779316905674        -4.653757485381717E-5    -1.3464374012109335E-5   0.9999999890292792
-194.24973620016073       -47.9638306629592        78.32452356697848        -3.0500307484435184E-5   -2.254650898297766E-5    1.0000000005372744
-209.38551012145123       -12.785243810676146      46.88475247358826        7.235299587731123E-5     -7.030496678314953E-5    1.000000023651508
-186.14546828355242       -37.132754099353534      97.10556148358425        -3.212523253874537E-5    -9.037523170363557E-7    0.9999999899509942
-194.64912246736003       14.15655439195078        55.9615747751477         1.413570876013743E-4     -4.874847474990638E-5    1.0000000268990799
-216.43439288964436       -150.7776861945454       -96.7203741550412        -2.657531858692156E-4    -3.802093327771017E-4    0.9999983419046508
-223.41741757344573       -157.70969473334233      -59.81817465061764       -2.470534666482795E-5    5.033338984302976E-5     1.0000000187045013
-205.99133018242043       -112.99080018287285      78.7274387928872         -1.7368923633532965E-5   4.666757637311011E-6     1.0000000204347745
-207.87936471055144       -130.37164921051112      100.12975901988331       1.831525114606363E-5     4.091061260622711E-6     1.0000000086949132
-211.78572521783673       -159.62788345762456      92.01330082864622        -1.224764953588363E-4    -1.5984425154564184E-5   1.000000036365966
-215.3711485364715        -100.56544537095594      -57.634531813837356      8.579629837311649E-5     3.491565702564167E-5     1.0000000023314046
-237.63703803158603       -99.58427637993125       30.48688522712482        3.3320165251818242E-6    -5.960733853882957E-5    1.0000001111759096
-201.8354279273141        -59.54480120206106       30.086908338643404       9.27967232334936E-6      8.06590356733277E-6      0.9999999372887177
-245.83657198023576       -124.26543999513359      15.606433875652167       4.110341746658292E-4     3.7845450433354397E-4    0.9999997233277796
-220.70649657732554       -130.85004353008398      -41.89437169863149       -1.61028764942487E-5     1.5844637466930495E-5    1.000000012474736
-245.90669694003188       -124.02492682047392      -19.25961841991434       4.8218484601356986E-5    3.576721817327035E-5     1.0000000245473541
-240.57134889917782       -93.7403286613459        -34.999778535120214      -3.706629069234319E-5    -5.949210946163011E-5    1.0000000795231967
-232.54188171555458       -75.68979958790197       16.437334239638577       -6.124653711041284E-5    -8.125064925003615E-5    1.0000000430222362
-235.40606762335025       -70.08636504397626       -14.183277227039948      -3.8575737796999204E-5   -4.269007801922709E-6    1.0000000570250074
-208.17672153160666       -54.57162583314832       -17.444747440443727      2.7431878546985102E-5    2.429251881872155E-5     0.9999999765684068
-218.22844321811579       -13.234799521468148      -4.389636537040973       1.2742715849907348E-4    3.66476993188653E-5      1.0000000035955559
-210.84037094399702       11.448656931163454       -12.468455186459831      2.6209449909677523E-5    1.8730646919151866E-5    1.000000002452695
-193.45857992823565       -47.80360626262102       11.944986773766963       -1.8481594967615747E-5   2.0649606989194837E-5    0.9999999666436831
-218.2681429906665        -29.918077257926747      -26.857207308251002      -8.218381668587006E-5    -3.616159791020672E-5    0.9999999268004068
-200.04036667414704       -20.851902877386987      20.403636691516994       -1.3474244930056141E-5   1.3836920707320614E-6    0.9999999993246718
-194.20181061383022       -164.5388765757467       -54.39849691224477       -1.2457565298397514E-4   -2.4158297883417984E-4   0.9999987551442023
-191.49088961771005       -137.6792253724883       -36.474693960258605      5.5719334247616076E-5    1.3528992765789408E-4    0.9999999650475059
-197.44181526764223       -161.82632203217025      63.37707686760161        -3.4044504977022785E-4   -1.1900614094871716E-5   1.000000061507692
-217.42029351308378       -167.1946440248239       43.44261511141861        -1.3211353102418746E-4   -4.891452415783344E-5    1.0000001453391516
-206.3286645168574        -115.3900197107273       38.13343284454897        -1.1109200364697949E-4   -4.8074110927770103E-5   1.0000000848052344
-214.52819846550716       -140.07118332592958      23.25298149307632        -6.703774957849318E-5    -5.302493512551702E-5    1.0000001090540283
-198.30702083073203       -130.03787022842621      59.799133862477845       -1.8752993986607069E-4   3.654428678731103E-6     1.000000035936311
-185.38271646568774       -146.6598519936743       -6.193393064117312       -3.016009459329799E-6    1.884384696488273E-5     1.0000000564625913
-184.5421006051286        -180.71861051304677      110.34018006676297       1.6027298951496158E-5    2.460709238935738E-6     1.000000016866325
-192.15666617633553       -195.2137598661366       -31.76374363352762       6.088800271733377E-5     -1.2518904660112291E-4   0.9999997340087938
-180.74717036881833       -183.26840516021247      -4.462153802371447       1.1545686996113999E-4    -6.578743770727899E-5    0.9999998885810918
-196.3925687738459        -194.93336851945068      26.104941974020576       3.0343958114033987E-5    3.5736181222210955E-5    1.0000000113040262
-188.48528260242225       -171.54175058468124      -116.34898172798346      -5.709952509445E-5       -1.2273764297632774E-4   0.9999988821872373
-170.75816936945654       -173.91608395278166      -91.5554836433555        -2.198607380701108E-4    -1.3327227915808706E-4   0.9999985057613334
-141.63942585933052       69.2450548879396         -207.77220008172938      5.688038059592702E-5     5.297654616422086E-5     0.9999991039783487
-154.75961249185434       47.971622930122834       -229.4423652003793       3.928110037562321E-5     3.39962494023743E-6      0.9999998023630734
-195.34240727701933       -19.19108280771302       -196.16036733024885      7.33852547391497E-5      1.999965221721571E-5     0.9999999887214122
-195.10951406313407       20.175470682394376       -196.35691514302076      1.1676567337208294E-4    2.8804023939984415E-5    0.9999999421195478
-165.57562348629273       55.42592763278627        -163.5135988827941       1.4997419248034813E-5    2.5571630313660413E-5    0.9999990396847219
-202.19074957604707       -18.803994397027104      -166.75788670957328      -4.3454653897955356E-5   1.4172769413582394E-5    0.9999999506510951
-148.01951518132262       51.72281661878108        -183.15269291994397      7.018351012772641E-6     1.9842164699361568E-5    0.9999983117226677
-161.13970181384641       30.449384660964295       -204.82285803859395      -3.637290128797506E-5    -3.748364929288711E-6    0.9999997811055279
-195.28819077500208       34.15249567496949        -168.59138334525846      3.2784281810983E-5       4.636924031607932E-5     0.9999999142028625
-195.14307299188695       14.808843952361412       -148.61284270481008      -1.1268679543157046E-4   -3.1990123612252545E-5   0.9999998778320948
-214.65195807301615       -89.60485978713768       -151.32487726825235      7.959827471990828E-6     -5.402138053123239E-5    1.000000089114106
-211.8909443996597        -52.0658859933133        -145.6964717212743       2.224387230714626E-5     6.1604142683658285E-6    0.9999999736649914
-215.92162371896308       -46.22936839930731       -110.38084505135815      -4.631326153102483E-5    -9.094852249699281E-5    0.9999999334835077
-209.47074921448268       -99.97043771805536       -122.90384376184745      1.371102793245529E-4     -7.539202314289633E-5    0.9999996618739256
-211.11842585743          -76.61784809772433       -101.74180437262979      -1.1057651856134352E-4   -2.4636142599559554E-5   1.0000000332001804
-185.89701712407634       -33.61114583554969       -153.77636156976558      -2.1823257967757664E-5   -5.843374059636321E-5    1.0000000702609728
-170.54498234915062       -52.41278106916292       -167.16364762365365      -5.441505756693296E-5    -1.0601999966320438E-4   1.000000169952677
-177.2614040188216        -112.08575948601576      -186.65009741110816      -7.231093206760345E-5    3.0398954075687475E-5    1.0000000732772445
-163.75019573592175       -56.0031264096071        -221.41961010067598      -1.9839790158057797E-5   -6.283706015608803E-6    0.999999979405725
-156.3440072744871        -92.8866403327437        -214.77436663278394      1.9922265280911435E-5    -4.664871746629553E-6    1.000000154303971
-184.9662406844711        -90.00939700140174       -163.7214350830069       -8.111212832598088E-5    -7.587661007357101E-5    1.0000000703574923
-170.24633414493576       -37.60562963064033       -196.73755341964699      -5.697308862813755E-5    -3.2346579393780314E-5   0.9999999674606144
-99.16274006079226        44.6289837136596         -260.17223346863733      2.9654731649093664E-6    2.102006816291778E-6     0.9999999099660634
-126.85853306589696       28.24088279682885        -249.51926932462183      4.821686393498601E-6     1.0842417517599067E-5    0.99999969566036
-198.9507100961628        -13.173175208586981      195.2803847783663        2.4719068151054226E-5    -1.8529069065500855E-5   1.0000000042367572
-197.16794694353788       24.358676589760773       196.5323955724488        -8.017763649311002E-5    -1.290959501897479E-4    1.000000053298329
-218.25548496218457       42.676438590159265       168.13837702005844       -6.744524693264655E-5    1.0355632684133307E-4    1.0000000284635167
-199.533554235311         -3.3748896666009376      141.7131547470048        8.08900146514261E-6      -2.6208074000035497E-5   1.0000000082058889
-209.45593351943438       44.916942545106295       124.33859003089975       -2.622404799749751E-4    1.0090845105265846E-4    0.9999999666452766
-220.3325134630301        23.51452607692503        140.33392150465696       9.446742533677654E-6     -1.6342800980235604E-6   1.000000054051564
-199.2392888870904        -21.744828951714457      168.2655994683237        -2.48852786969049E-5     -1.2401715550775572E-5   1.0000000006090717
-207.37890501858888       64.07885505834052        152.1430455463012        -1.2033154199379064E-4   2.3567980700833848E-5    0.999999457086318
-164.3508994823853        56.97356405895885        219.4960017181118        7.130184837501754E-4     4.1529073108748793E-4    1.0000000508879436
-171.89400297575017       43.39601354006742        195.70308571987331       -4.529939961053472E-5    -3.3161003470942104E-6   1.000000033565323
-156.8118733653975        96.16064811708767        211.29681814301838       0.0011796896322260426    4.1785947056839184E-4    1.0000000051706945
-176.86435836811225       115.96326438451399       182.81685514325724       -2.4553051751282826E-4   -2.930619086953681E-5    1.0000001323106733
-177.60980368834          64.79843000824869        163.11537358993056       -5.175900072840721E-4    1.2451099130650257E-5    0.9999999574301133
-190.11918519768994       98.17859679456643        158.4283265884079        -3.8644124780956807E-4   9.587249631879412E-6     0.99999985665244
-181.6100972647479        124.7463827621388        107.70000060801615       -2.9267662798498635E-4   -3.3726241010736334E-4   0.9999997923201003
-172.44598897879203       107.93899753837934       132.2118841862579        1.2948677685639463E-5    -6.268621793147011E-5    0.999999948799238
-168.2349540520306        157.65102574501233       116.34011016822473       4.3979651003844955E-5    8.311303577562847E-5     0.9999999775556445
-173.34101957981883       104.47330050987424       84.00386607268656        -3.1028478176113166E-4   -3.42434352384316E-4     0.9999997933883368
-167.6709322320437        -19.669553919882684      206.34518030465696       8.929982354619393E-5     -1.1683782871316949E-4   0.9999999736740985
-167.95951102297124       -28.24120766301016       179.33039499461438       -4.6411694314615045E-6   1.4057773073257253E-4    1.0000000530602036
-203.94396520162405       18.925109215570522       -78.6775537049376        -6.655133066250902E-5    -1.8623656554036352E-5   0.9999999207047778
-206.27222209990038       -12.05220336711094       -76.62134719516004       -3.281512978301694E-5    2.8183195535108946E-5    0.9999999651986177
-175.77496776991822       -13.201155657364453      -121.1842687775991       3.3388351723792425E-5    8.244598118562431E-5     0.9999999493425141
-199.43987850933007       -20.100827145089948      -48.60902345111832       -1.2411859367855875E-4   -4.890295250289851E-5    0.9999999381779506
-191.84390274818597       -27.44518196927224       -96.58001684773463       -2.5810142657768545E-5   3.340226426782908E-5     0.9999999263450858
-205.64011905168394       34.17840396605125        -52.19445624699917       6.033177703879028E-5     1.7452759217743424E-5    0.999999974542086
-196.72734204308617       9.338851778884113        -37.659559835419536      3.9789911724956946E-5    -1.4956155160355576E-5   0.9999999873785342
-175.65499627757134       15.58302077373324        -122.99264277583012      -1.2396984778190549E-5   -9.473809403350039E-5    0.9999999376383882
-189.3956743575628        32.316307044506914       -100.44459735574318      5.103831808793066E-5     -5.639613347127541E-6    0.999999922543332
-173.25589515534423       13.633543900900268       -24.33157767686017       -2.0654443719817927E-5   -2.6585896187384784E-5   0.9999999943515289