% Model:              Sph.mph
% Version:            COMSOL 6.1.0.282
% Date:               Jan 27 2025, 17:23
% Dimension:          3
% Nodes:              8372
% Expressions:        3
% Description:        magnetization deviation, X component, magnetization deviation, Y component, magnetization deviation, Z component
% Length unit:        nm
% x                       y                        z                        dm2X (1) @ lambda=2E-9                            dm2Y (1) @ lambda=2E-9                            dm2Z (1) @ lambda=2E-9
2.9926910185174163E-7     2.0229511787112847E-7    1.463695637000142E-7     0.031040450391442168+0.012113803190300433i        0.01211380319028717-0.03104045039143342i          0
3.152872632228935E-7      1.873687358146356E-7     1.326272587555977E-7     0.03104044939340116+0.012113802800806348i         0.012113802800793001-0.031040449393392414i        0
3.2260034641816055E-7     1.91278140009357E-7      1.054632922198047E-7     0.03104044713680127+0.012113801920148876i         0.012113801920135503-0.031040447136792413i        0
3.5285864971650736E-7     4.517207841730353E-8     1.4833601794582075E-7    0.031040451699957266+0.012113803700959738i        0.012113803700946392-0.03104045169994841i         0
3.485614896422723E-7      7.470192005019942E-8     1.4705457651137E-7       0.031040451396279617+0.01211380358244694i         0.012113803582433622-0.031040451396270815i        0
3.564240880912461E-7      -3.869217886422185E-8    1.4610333792099663E-7    0.031040452048104763+0.012113803836827294i        0.01211380383681392-0.03104045204809596i          0
2.969433107407819E-7      2.6255539998812697E-8    2.4792134720271936E-7    0.031040459910960848+0.012113806905374563i        0.012113806905361301-0.031040459910951935i        0
3.2383758401650877E-7     1.4355849146806204E-7    1.473269526085995E-7     0.03104045091314469+0.012113803393899367i         0.012113803393885993-0.031040450913135835i        0
3.0798025908110734E-7     1.6004310950165325E-7    1.4195362807647625E-7    0.031040450315128934+0.012113803160518506i        0.012113803160505244-0.031040450315120077i        0
3.160543981823445E-7      1.32444126277507E-7      1.7224335582661755E-7    0.03104045302658652+0.012113804218688188i         0.012113804218674896-0.03104045302657772i         0
3.2478819213505505E-7     8.856648488283348E-8     1.5640288636468785E-7    0.031040452012079903+0.01211380382276828i         0.012113803822755016-0.03104045201207121i         0
3.2374270119437677E-7     1.038695023775157E-7     1.7685037929621322E-7    0.031040453610918478+0.012113804446728792i        0.012113804446715474-0.031040453610909676i        0
2.65883566880778E-7       1.4205404249172224E-7    2.3465178430388293E-7    0.03104045799156433+0.012113806156313524i         0.012113806156300262-0.031040457991555474i        0
2.7455237177651746E-7     1.1216871300665661E-7    2.4029712120223874E-7    0.031040458673301456+0.012113806422367465i        0.012113806422354092-0.03104045867329271i         0
2.536294995878642E-7      9.999482031022247E-8     2.4816716333022925E-7    0.03104045933744312+0.0121138066815544i           0.012113806681541082-0.031040459337434375i        0
2.5531401387722176E-7     8.825479807503613E-8     2.735745929309214E-7     0.031040461524962527+0.012113807535252732i        0.012113807535239416-0.03104046152495389i         0
2.7409374308750476E-7     4.418258481116088E-8     2.701001704260686E-7     0.031040461569428295+0.012113807552605818i        0.012113807552592473-0.031040461569419437i        0
2.6032132683296154E-7     6.326057086534908E-8     2.616742739695948E-7     0.031040460708332003+0.012113807216555559i        0.012113807216542267-0.031040460708323146i        0
2.5844271180685756E-7     3.019059253944051E-8     2.721241708739539E-7     0.03104046177597634+0.012113807633212955i         0.012113807633199664-0.031040461775967317i        0
2.459785615894797E-7      2.1031451857195817E-8    2.9743754732516826E-7    0.03104046389565028+0.012113808460434049i         0.012113808460420759-0.031040463895641534i        0
2.4467029555231434E-7     4.92685785936287E-8      2.6369827441748014E-7    0.031040460914879713+0.012113807297162639i        0.012113807297149264-0.031040460914870966i        0
2.0067771554912584E-7     9.182267334095931E-8     3.1826050512744217E-7    0.03104046504249758+0.01211380890800107i          0.012113808907987751-0.031040465042488835i        0
2.1778693103678572E-7     1.0920803970104341E-7    3.0074983753208014E-7    0.031040463533743172+0.012113808319196616i        0.012113808319183354-0.031040463533734314i        0
2.254765121625599E-7      9.388594431651175E-8     2.8308962658970365E-7    0.03104046218704906+0.012113807793637708i         0.012113807793624308-0.031040462187040315i        0
2.0539494701683964E-7     1.3175859917400154E-7    2.8678706772943316E-7    0.031040462195671057+0.012113807797002569i        0.012113807796989224-0.03104046219566231i         0
2.359277665430792E-7      1.512797680264062E-7     2.440100745593765E-7     0.031040458617880712+0.012113806400739002i        0.012113806400725655-0.03104045861787191i         0
2.285759908048839E-7      1.7388081996524476E-7    2.5980182476728986E-7    0.031040459765172623+0.012113806848479534i        0.012113806848466215-0.031040459765163654i        0
2.1142885579148263E-7     1.61299172602331E-7      2.8157197049219565E-7    0.031040461597479956+0.01211380756355326i         0.012113807563539913-0.031040461597471265i        0
1.741150712908984E-7      1.0573093018488254E-7    3.2911638332636257E-7    0.03104046577450916+0.01211380919367492i          0.012113809193661548-0.031040465774500137i        0
1.8346966390082368E-7     1.7636501100627095E-7    2.9151651623603586E-7    0.031040462242288284+0.012113807815195228i        0.012113807815181881-0.031040462242279538i        0
2.400341338055786E-7      3.0247976129131636E-7    2.244395619560589E-8     0.031040439295846687+0.012113798860148715i        0.012113798860135397-0.03104043929583783i         0
2.1629665655664805E-7     3.187919271737745E-7     3.729464715631538E-8     0.03104044035328099+0.012113799272821576i         0.01211379927280826-0.031040440353272077i         0
2.2929467971245086E-7     2.0380806329783106E-7    2.3323239048572556E-7    0.031040457375366676+0.012113805915837193i        0.01211380591582382-0.031040457375357874i         0
2.1865684153049706E-7     1.849391828396584E-7     2.4177235252765535E-7    0.03104045816878164+0.01211380622547414i          0.012113806225460823-0.03104045816877273i         0
2.476598105207688E-7      2.088325703091282E-7     2.0835291154676224E-7    0.031040455335804355+0.012113805119880432i        0.012113805119867087-0.031040455335795664i        0
2.2600861726869236E-7     1.6233813090081983E-7    2.2598060231974202E-7    0.031040457021488672+0.012113805777733192i        0.012113805777719902-0.031040457021479985i        0
2.837431156955978E-7      1.6234110451985707E-7    1.974421988150667E-7     0.031040454831793147+0.012113804923185565i        0.012113804923172274-0.031040454831784234i        0
2.494039836509466E-7      1.8974223360653007E-7    1.9549180212010473E-7    0.03104045439249894+0.0121138047517474i           0.012113804751734-0.03104045439249003i            0
2.755081401586102E-7      1.8838185176690497E-7    1.8626810054146515E-7    0.031040453716392212+0.012113804487890829i        0.01211380448787754-0.031040453716383243i         0
2.631570982773557E-7      1.4815682264067133E-7    2.0728991472657817E-7    0.031040455673678493+0.012113805251738684i        0.012113805251725365-0.031040455673669694i        0
2.882510965076822E-7      1.4317043268549197E-7    1.776284730176016E-7     0.031040453320417178+0.012113804333358187i        0.012113804333344814-0.031040453320408376i        0
2.8134564617332994E-7     1.874145826317584E-7     1.5970677025980285E-7    0.03104045153561309+0.012113803636822941i         0.012113803636809679-0.031040451535604287i        0
2.3839062858082392E-7     1.6211667465639432E-7    2.0457953085115467E-7    0.031040455284768852+0.012113805099963354i        0.012113805099950008-0.03104045528475994i         0
2.8262328422137574E-7     1.5793301360135671E-7    1.5482725008140055E-7    0.031040451318166275+0.012113803551962524i        0.012113803551949095-0.03104045131815736i         0
2.6766507908944E-7        1.2898615080630623E-7    1.874761889291131E-7     0.031040454162302854+0.012113804661911304i        0.012113804661897931-0.031040454162293885i        0
2.849800844422837E-7      2.361113945359111E-7     9.265307371618671E-8     0.031040445677213143+0.012113801350531906i        0.012113801350518559-0.03104044567720412i         0
3.0415281036813175E-7     2.161626291054441E-7     7.829053981186563E-8     0.03104044466877088+0.012113800956978754i         0.01211380095696538-0.031040444668762077i         0
3.000293610992062E-7      1.9935251523955147E-7    9.498036794069397E-8     0.031040446146150202+0.012113801533538669i        0.012113801533525294-0.0310404461461414i          0
2.513049005057544E-7      2.5052433527611585E-7    1.4868367641238273E-7    0.031040450134082322+0.012113803089863576i        0.01211380308985023-0.03104045013407369i          0
2.777578484165153E-7      2.14735266719463E-7      1.3495750597060009E-7    0.031040449299759566+0.01211380276426189i         0.01211380276424863-0.031040449299750708i         0
2.6631088083556997E-7     2.2957831877858616E-7    1.0879798159773895E-7    0.031040447000143447+0.012113801866816928i        0.012113801866803608-0.031040447000134645i        0
2.7286370478337256E-7     2.3643032560488454E-7    1.330232108212662E-7     0.03104044898883735+0.012113802642921804i         0.012113802642908542-0.03104044898882855i         0
2.7120502446871283E-7     2.0788325989316463E-7    1.1073227674707288E-7    0.031040447311066827+0.012113801988157376i        0.012113801988144084-0.031040447311058025i        0
2.4069573532787827E-7     1.990520025799512E-7     1.6838555159116629E-7    0.031040452057270643+0.012113803840404374i        0.012113803840391055-0.031040452057261785i        0
2.3895156219770046E-7     2.1814233928254937E-7    1.8124666101782382E-7    0.03104045300057545+0.012113804208537183i         0.01211380420852381-0.031040453000566702i         0
2.598343927381036E-7      1.9985473148009292E-7    1.4829471253038874E-7    0.031040450443929547+0.012113803210784122i        0.012113803210770775-0.031040450443920745i        0
2.532815687903011E-7      1.9300272465379456E-7    1.2406948330686148E-7    0.031040448455236083+0.012113802434679357i        0.012113802434666011-0.03104044845522728i         0
2.425088942694584E-7      2.4216130146768633E-7    1.7423752271148149E-7    0.031040452280156693+0.012113803927387524i        0.012113803927374179-0.031040452280147835i        0
2.1796022209855455E-7     3.075727193409776E-7     7.778455574516324E-8     0.03104044378953904+0.012113800613850905i         0.012113800613837558-0.03104044378953046i         0
2.3832619936214594E-7     2.8825939389177326E-7    9.261308623310936E-8     0.03104044520409081+0.012113801165891929i         0.012113801165878613-0.03104044520408212i         0
2.425605455353081E-7      2.4006951658912375E-7    9.693425265958125E-8     0.031040445876149125+0.012113801428168385i        0.012113801428155067-0.0310404458761401i          0
2.152001455930135E-7      3.012729228762737E-7     5.446566997946587E-8     0.031040441884428994+0.012113799870365274i        0.012113799870351955-0.03104044188442008i         0
2.6132836904317823E-7     2.721273658042143E-7     7.721942694643042E-8     0.031040444098175028+0.012113800734298744i        0.01211380073428537-0.03104044409816617i          0
2.612297491420218E-7      2.4660259234644863E-7    8.078934477802901E-8     0.03104044455321965+0.012113800911883806i         0.012113800911870377-0.031040444553210627i        0
2.2874954594590864E-7     2.540141841313909E-7     1.0334145674030084E-7    0.031040446278255723+0.01211380158509411i         0.01211380158508071-0.031040446278247032i         0
2.2441657987159002E-7     2.7667928797627474E-7    1.025902081454275E-7     0.031040446061241476+0.012113801500402414i        0.01211380150038904-0.03104044606123262i          0
2.266081108942338E-7      2.8028209983696856E-7    1.3011440267470174E-7    0.03104044833048088+0.012113802385992477i         0.012113802385979188-0.03104044833047208i         0
2.3094107696855244E-7     2.576169959920848E-7     1.3086565126957507E-7    0.031040448547495124+0.012113802470684259i        0.012113802470670912-0.031040448547486433i        0
2.7892077073126313E-7     2.6642451561934127E-7    2.994229918441227E-8     0.031040440263731497+0.012113799237874104i        0.01211379923786073-0.031040440263722584i         0
2.988957016504211E-7      2.460160993591856E-7     1.4496804978949075E-8    0.031040439170744644+0.012113798811326602i        0.012113798811313255-0.03104043917073584i         0
2.626705580179557E-7      2.6134171859147487E-7    4.7113322007562757E-8    0.031040441670324558+0.01211379978680919i         0.012113799786795873-0.031040441670315756i        0
2.6257193811679927E-7     2.3581694513370914E-7    5.068323983916133E-8     0.031040442125369796+0.012113799964394448i        0.012113799964381129-0.031040442125360772i        0
2.9976261695019996E-7     2.4465540240331513E-7    -1.651085516999484E-8    0.031040436607867445+0.012113797811141724i        0.012113797811128268-0.031040436607858532i        0
3.6928332516725404E-7     -7.842611092322525E-8    7.659780640900498E-8     0.031040446565693897+0.012113801697269201i        0.012113801697255911-0.031040446565684984i        0
3.849062860417066E-7      -3.989490458865876E-8    -2.1595864570549634E-8   0.031040438222836288+0.012113798441397164i        0.012113798441383848-0.031040438222827486i        0
3.8218584599052575E-7     -2.4950017289379625E-8   3.625524514332992E-8     0.031040442923698133+0.012113800275949004i        0.012113800275935687-0.031040442923689387i        0
3.8218584599052575E-7     -4.445902904925179E-8    1.6746233383457756E-8    0.031040441425718556+0.01211379969134952i         0.012113799691336257-0.031040441425709865i        0
3.7264740000629264E-7     -3.7815599590434395E-8   -4.6730819595282335E-9   0.031040439576609465+0.012113798969718821i        0.012113798969705502-0.031040439576600663i        0
3.718008895062685E-7      6.97005630087818E-8      7.595728373474525E-8     0.03104044559762305+0.01211380131947131i          0.012113801319457936-0.03104044559761425i         0
3.758937642046936E-7      4.028620267191152E-8     7.810228989136157E-8     0.03104044597163312+0.012113801465431857i         0.012113801465418482-0.031040445971624208i        0
3.4636248410610427E-7     7.374543103094662E-8     1.1677599314772264E-7    0.031040448881880657+0.012113802601181004i        0.012113802601167713-0.03104044888187202i         0
3.614414256395639E-7      8.721093011187677E-8     1.0017275214831334E-7    0.031040447466563925+0.012113802048841497i        0.012113802048828178-0.03104044746655518i         0
2.948449796825627E-7      1.7711567801243898E-7    8.814682756444025E-8     0.031040445701287857+0.012113801359927328i        0.012113801359914066-0.031040445701279167i        0
3.176651824415778E-7      1.3260698859448023E-7    1.2704750991352642E-7    0.031040449278721467+0.01211380275605159i         0.012113802756038244-0.031040449278712554i        0
3.0180785750617634E-7     1.4909160662807138E-7    1.2167418538140318E-7    0.03104044868070649+0.012113802522671118i         0.012113802522657854-0.031040448680697743i        0
3.391682097619614E-7      1.5244120345262773E-7    8.438024084881732E-8     0.031040445680033193+0.012113801351632486i        0.012113801351619168-0.03104044568002439i         0
3.4074695240465753E-7     1.3421029196408197E-7    1.0605039443459555E-7    0.03104044759741442+0.012113802099907029i         0.012113802099893711-0.031040447597405617i        0
3.17415965001517E-7       1.690413027822445E-7     9.862975184355097E-8     0.03104044669193798+0.012113801746537065i         0.012113801746523746-0.031040446691929287i        0
2.764508826464449E-7      1.4698151072777482E-7    1.3454780738632753E-7    0.031040449683745606+0.012113802914115745i        0.012113802914102372-0.031040449683736693i        0
3.1092748754809187E-7     1.0618960590924296E-7    1.315164202000191E-7     0.03104044979332667+0.012113802956880759i         0.012113802956867469-0.03104044979331798i         0
3.3979075085748943E-7     1.061642840303807E-7     9.33611523044989E-8      0.03104044671577332+0.012113801755839062i         0.012113801755825687-0.031040446715764627i        0
3.247118093240297E-7      9.269878494945053E-8     1.0996439330390822E-7    0.031040448131090546+0.012113802308178708i        0.012113802308165417-0.031040448131081637i        0
2.686204206505965E-7      1.696110729318782E-7     1.1520209834120257E-7    0.031040447912499294+0.012113802222871676i        0.012113802222858329-0.03104044791249049i         0
2.9662675729701344E-7     2.204317601882136E-7     -2.433418502658637E-8    0.03104043609957974+0.012113797612777994i         0.012113797612764703-0.03104043609957094i         0
3.152826049340013E-7      2.0943159933882704E-7    -4.013147286874943E-8    0.03104043491468489+0.012113797150362664i         0.012113797150349319-0.031040434914676146i        0
3.3626058047578863E-7     1.1511675032876454E-8    1.8362891434242185E-7    0.031040454787842835+0.012113804906033643i        0.012113804906020324-0.031040454787834033i        0
3.361290261821361E-7      -2.1237381075883782E-8   1.8310505099444433E-7    0.031040454947947632+0.012113804968515971i        0.01211380496850268-0.031040454947938775i         0
3.320203200809425E-7      2.7460536288816567E-8    1.6203918457610508E-7    0.03104045288308438+0.012113804162685333i         0.012113804162672015-0.031040452883075633i        0
3.3555003157725324E-7     -2.703653138809687E-8    1.606824425115471E-7     0.031040453120900105+0.012113804255494888i        0.012113804255481515-0.031040453120891303i        0
3.277010869884199E-7      6.384660949874547E-9     1.4808587491246655E-7    0.031040451842640437+0.01211380375664307i         0.012113803756629724-0.0310404518426318i          0
3.139353263673101E-7      4.6806706505489334E-8    2.1549572362783957E-7    0.03104045714397956+0.012113805825536396i         0.012113805825523079-0.031040457143970926i        0
3.0553424188880897E-7     7.347022541212997E-8     1.6844693116570187E-7    0.031040453046109733+0.01211380422630735i         0.012113804226294059-0.03104045304610093i         0
3.0864957503178575E-7     7.805858525611169E-8     2.143534867930482E-7     0.031040456838060566+0.012113805706148794i        0.01211380570613553-0.031040456838051934i         0
3.044887509481307E-7      8.87732429068122E-8      1.8889442409722729E-7    0.031040454644946702+0.012113804850267198i        0.012113804850253852-0.031040454644937956i        0
2.938434728657381E-7      1.982767285058462E-8     2.051373490963368E-7     0.031040456389730308+0.012113805531184074i        0.012113805531170838-0.03104045638972156i         0
3.0846920976046125E-7     4.1894118451008975E-8    1.7280178794266835E-7    0.031040453613435617+0.012113804447711105i        0.012113804447697815-0.031040453613426815i        0
2.950693290777409E-7      4.0689122161005095E-8    2.2624155501519124E-7    0.031040458015516904+0.012113806165661219i        0.012113806165647903-0.031040458015508046i        0
2.594523824128581E-7      8.027503458048311E-8     2.2746422136295448E-7    0.031040457759756845+0.012113806065848713i        0.012113806065835366-0.031040457759747987i        0
3.1270947015530734E-7     2.5945257195068856E-8    1.943915177089851E-7     0.03104045551819485+0.012113805191059748i         0.012113805191046375-0.031040455518185885i        0
2.803752546015114E-7      9.244892727691726E-8     2.1959417923496396E-7    0.03104045709561457+0.012113805806661474i         0.012113805806648073-0.031040457095605656i        0
2.7621443051785634E-7     1.0316358492761779E-7    1.9413511653914304E-7    0.03104045490250115+0.012113804950780044i         0.012113804950766728-0.031040454902492125i        0
2.6886070555356325E-7     5.976710821519328E-8     2.3296936030839044E-7    0.03104045837373847+0.012113806305460387i         0.01211380630544704-0.031040458373729724i         0
3.849062860417066E-7      -2.038589282878659E-8    -4.110487633042178E-8    0.03104043648180303+0.012113797761943917i         0.012113797761930629-0.03104043648179417i         0
3.352319914981748E-7      1.8117741164523988E-7    -1.0782535148394422E-8   0.031040437589023234+0.012113798194046167i        0.012113798194032764-0.03104043758901443i         0
2.983020942512321E-7      2.0245438804710504E-7    5.469742423453812E-8     0.031040442777442296+0.01211380021887148i         0.012113800218858134-0.031040442777433494i        0
3.1837564507154654E-7     2.0757074524471505E-7    3.568201219747635E-8     0.03104044122941115+0.012113799614738912i         0.012113799614725567-0.031040441229402346i        0
3.4524536195087104E-7     1.5687183824478725E-7    3.812232933157105E-8     0.031040441831294268+0.012113799849628976i        0.01211379984961563-0.031040441831285355i         0
2.804715573001614E-7      2.1161750626483252E-7    3.895385319999155E-8     0.03104044135803703+0.012113799664936215i         0.012113799664922898-0.03104044135802817i         0
3.005451081204759E-7      2.1673386346244258E-7    1.9938441162929766E-8    0.0310404398100041+0.012113799060803149i          0.012113799060789746-0.031040439809995355i        0
3.3440668081225755E-7     1.8301445427689894E-7    2.075832372831521E-8     0.031040440193325962+0.012113799210397787i        0.01211379921038444-0.031040440193317163i         0
3.1041900318754806E-7     1.893961649842297E-7     -1.8605865004985955E-8   0.031040436811289467+0.012113797890528862i        0.012113797890515542-0.031040436811280554i        0
2.949717425048138E-7      1.725296605678637E-7     6.197494715043145E-8     0.03104044355763459+0.012113800523348126i         0.012113800523334809-0.031040443557625565i        0
2.6647921537389824E-7     1.661949985560297E-7     5.5538513435249507E-8    0.031040442974255924+0.012113800295679635i        0.012113800295666315-0.03104044297424701i         0
3.2588397446374177E-7     1.5150340173336213E-7    6.03235407166255E-8      0.03104044364757373+0.012113800558447688i         0.012113800558434341-0.03104044364756493i         0
2.917631555505602E-7      2.0039632583361621E-7    -2.808577162822893E-9    0.03104043799618504+0.012113798352944606i         0.012113798352931289-0.031040437996176184i        0
2.6213416319302557E-7     1.902190238420604E-7     3.2910418559982987E-8    0.03104044093267132+0.012113799498933622i         0.012113799498920219-0.03104044093266252i         0
2.666356470905192E-7      1.8626544057424187E-7    6.071676666329684E-9     0.031040438743314+0.012113798644518062i           0.012113798644504743-0.031040438743305143i        0
3.5536225301906115E-7     1.437433503205452E-7     -4.0297189661463895E-8   0.031040435434648815+0.012113797353283001i        0.012113797353269656-0.031040435434640124i        0
3.3298130250907905E-7     1.5644214658987445E-7    -2.07579043164433E-8     0.03104043690802419+0.01211379792828037i          0.012113797928267053-0.03104043690801528i         0
3.5106497826548117E-7     1.4105198392500453E-7    -7.151162869042252E-8    0.031040432846849077+0.012113796343371846i        0.012113796343358529-0.031040432846840164i        0
3.081683141984523E-7      1.646608999288643E-7     -2.858123417303483E-8    0.03104043613028987+0.012113797624762926i         0.012113797624749581-0.031040436130281013i        0
3.641906987600473E-7      -7.570972849319339E-9    -9.470603460441315E-10   0.031040439671240615+0.012113799006649498i        0.012113799006636124-0.031040439671231924i        0
3.8013585829987775E-7     7.167846160778627E-8     3.3861399933284585E-8    0.031040442116682707+0.012113799961004257i        0.012113799960990967-0.03104044211667385i         0
3.8615029177297505E-7     4.2264101270915993E-8    1.6497394330028748E-8    0.03104044087715805+0.012113799477269175i         0.012113799477255858-0.031040440877149304i        0
3.8615029177297505E-7     2.275508951104382E-8     3.6006406089900916E-8    0.031040442618191975+0.012113800156722644i        0.012113800156709216-0.031040442618183173i        0
3.7083841011273596E-7     3.7075325518519934E-8    5.281550027597678E-8     0.031040443876788663+0.01211380064790079i         0.012113800647887472-0.03104044387677986i         0
3.73578504435758E-7       -9.464780824403742E-10   2.6752142531931608E-8    0.03104044195854745+0.012113799899290598i         0.012113799899277251-0.031040441958538483i        0
3.667455354143109E-7      6.648968585539022E-8     5.067049411936045E-8     0.031040443502777487+0.012113800501939746i        0.012113800501926373-0.031040443502768685i        0
3.857832840759899E-7      4.484930416792688E-8     -9.173913593405907E-9    0.031040438728853488+0.01211379863887473i         0.012113798638861438-0.03104043872884474i         0
3.669447159204513E-7      8.043765022541504E-8     1.7965353439457553E-8    0.031040440701549325+0.012113799408736227i        0.01211379940872302-0.031040440701540467i         0
3.3090305595313616E-7     1.3129709924752156E-7    -7.65840676135057E-9     0.03104043814563622+0.012113798411269205i         0.012113798411255941-0.031040438145627527i        0
3.7104225226512797E-7     6.562796731535656E-8     -1.2298587370688293E-8   0.03104043829422809+0.012113798469258422i         0.012113798469245159-0.031040438294219343i        0
3.6971078271746377E-7     1.079703178087357E-7     1.423933182597345E-8     0.031040440229327806+0.012113799224447752i        0.012113799224434407-0.031040440229318948i        0
3.704662512892525E-7      1.0728560342444796E-7    -1.7222322938322294E-8   0.03104043762420528+0.012113798207776284i         0.012113798207762939-0.031040437624196532i        0
3.5328400646311825E-7     1.1859830297819229E-7    -2.719769210637117E-8    0.03104043667226018+0.01211379783627153i          0.012113797836258183-0.031040436672251377i        0
3.761615473847369E-7      8.362199828669622E-8     -3.0122258145212304E-8   0.03104043671844331+0.012113797854294882i         0.012113797854281537-0.031040436718434396i        0
3.379769378498725E-7      1.305823150858314E-7     3.0257685014204724E-8    0.03104044131960488+0.012113799649937718i         0.0121137996499244-0.031040441319595855i          0
3.186155503627432E-7      1.252138785744063E-7     5.2458896399259184E-8    0.031040443135883958+0.01211380035875632i         0.012113800358743002-0.03104044313587527i         0
3.3094358411379454E-7     9.810567235997057E-8     6.382635440135437E-8     0.031040444286702596+0.012113800807873235i        0.012113800807859888-0.031040444286693683i        0
3.4753890480391145E-7     7.594144128807507E-8     4.535116462978401E-8     0.03104044294264869+0.012113800283344602i         0.012113800283331366-0.031040442942639777i        0
3.2925033951210773E-7     1.2194661789639087E-7    9.769005633666509E-9     0.03104043964545305+0.01211379899658558i          0.012113798996572289-0.03104043964544425i         0
3.5087582145030104E-7     1.0993253601134931E-7    2.1691375052941653E-8    0.03104044077719976+0.012113799438259566i         0.012113799438246219-0.031040440777191067i        0
3.4810975465328863E-7     8.239986842802865E-8     2.541739666642576E-8     0.0310404412494225+0.012113799622548568i          0.012113799622535112-0.031040441249413752i        0
3.480371766086362E-7      9.814418640878953E-8     -4.6866808775667196E-8   0.031040435150574437+0.012113797242420484i        0.012113797242407166-0.03104043515056558i         0
3.771327105760776E-7      5.0071389864945014E-8    -8.181496212382223E-8    0.03104043263927614+0.012113796262364739i         0.012113796262351421-0.031040432639267392i        0
3.6380273360037704E-7     9.977327455973867E-8     -9.471810334705864E-8    0.031040431217119715+0.0121137957073559i          0.012113795707342608-0.031040431217110857i        0
3.737953044494413E-7      7.880103581752756E-8     -7.640359952499E-8       0.031040432899155656+0.012113796363784986i        0.012113796363771613-0.031040432899146854i        0
3.5086874044201324E-7     1.1294243943038273E-7    -7.495657402734346E-8    0.031040432735366035+0.012113796299864647i        0.0121137962998513-0.03104043273535729i           0
3.652240830810221E-7      8.192715252198486E-8     -4.979137481450834E-8    0.031040435062217497+0.012113797207938442i        0.012113797207925124-0.031040435062208695i        0
3.3020798432759887E-7     1.6913829543661534E-7    -1.0550628383394263E-7   0.031040429785079725+0.012113795148489922i        0.012113795148476575-0.031040429785070812i        0
3.3105221769422125E-7     1.4932660758591506E-7    -8.34201167989515E-8     0.031040431744560164+0.012113795913194053i        0.012113795913180764-0.03104043174455125i         0
3.3085597987075327E-7     1.2121706309129327E-7    -8.68650621358724E-8     0.031040431633076793+0.012113795869686745i        0.012113795869673427-0.031040431633067935i        0
1.464054628713783E-7      3.5481981259602993E-7    3.463897001565515E-8     0.03104043969123634+0.012113799014452947i         0.012113799014439628-0.031040439691227592i        0
1.459184538207037E-7      3.5061681905356636E-7    6.285269161735592E-8     0.031040442058017776+0.01211379993810971i         0.012113799938096447-0.03104044205800892i         0